ITEM: TIMESTEP
0
ITEM: NUMBER OF ATOMS
2432
ITEM: BOX BOUNDS pp pp pp
-20 20
-20 20
-34 34
ITEM: ATOMS id type mol x y z mux muy muz 
1 2 1 -17.9 -19 21.5 0 0 0 
2 2 1 -17.9 -19 17 0 0 0 
3 2 1 -19.95 -19.95 13.4 0 0 0 
4 2 1 -15.85 -18.05 13.4 0 0 0 
5 2 1 -17.9 -19 9.8 0 0 0 
6 2 1 -19.95 -19.95 8 0 0 0 
7 2 1 -17.9 -19 5.5 0 0 0 
8 4 1 -15.85 -19 2.5 0 0 0 
9 3 1 -17.9 -19 24.5 0 0 0.4 
10 2 2 -17.9 -14 21.5 0 0 0 
11 2 2 -17.9 -14 17 0 0 0 
12 2 2 -19.95 -14.95 13.4 0 0 0 
13 2 2 -15.85 -13.05 13.4 0 0 0 
14 2 2 -17.9 -14 9.8 0 0 0 
15 2 2 -19.95 -14.95 8 0 0 0 
16 2 2 -17.9 -14 5.5 0 0 0 
17 4 2 -15.85 -14 2.5 0 0 0 
18 3 2 -17.9 -14 24.5 0 0 0.4 
19 2 3 -17.9 -9 21.5 0 0 0 
20 2 3 -17.9 -9 17 0 0 0 
21 2 3 -19.95 -9.95 13.4 0 0 0 
22 2 3 -15.85 -8.05 13.4 0 0 0 
23 2 3 -17.9 -9 9.8 0 0 0 
24 2 3 -19.95 -9.95 8 0 0 0 
25 2 3 -17.9 -9 5.5 0 0 0 
26 4 3 -15.85 -9 2.5 0 0 0 
27 3 3 -17.9 -9 24.5 0 0 0.4 
28 2 4 -17.9 -4 21.5 0 0 0 
29 2 4 -17.9 -4 17 0 0 0 
30 2 4 -19.95 -4.95 13.4 0 0 0 
31 2 4 -15.85 -3.05 13.4 0 0 0 
32 2 4 -17.9 -4 9.8 0 0 0 
33 2 4 -19.95 -4.95 8 0 0 0 
34 2 4 -17.9 -4 5.5 0 0 0 
35 4 4 -15.85 -4 2.5 0 0 0 
36 3 4 -17.9 -4 24.5 0 0 0.4 
37 2 5 -17.9 1 21.5 0 0 0 
38 2 5 -17.9 1 17 0 0 0 
39 2 5 -19.95 0.05 13.4 0 0 0 
40 2 5 -15.85 1.95 13.4 0 0 0 
41 2 5 -17.9 1 9.8 0 0 0 
42 2 5 -19.95 0.05 8 0 0 0 
43 2 5 -17.9 1 5.5 0 0 0 
44 4 5 -15.85 1 2.5 0 0 0 
45 3 5 -17.9 1 24.5 0 0 0.4 
46 2 6 -17.9 6 21.5 0 0 0 
47 2 6 -17.9 6 17 0 0 0 
48 2 6 -19.95 5.05 13.4 0 0 0 
49 2 6 -15.85 6.95 13.4 0 0 0 
50 2 6 -17.9 6 9.8 0 0 0 
51 2 6 -19.95 5.05 8 0 0 0 
52 2 6 -17.9 6 5.5 0 0 0 
53 4 6 -15.85 6 2.5 0 0 0 
54 3 6 -17.9 6 24.5 0 0 0.4 
55 2 7 -17.9 11 21.5 0 0 0 
56 2 7 -17.9 11 17 0 0 0 
57 2 7 -19.95 10.05 13.4 0 0 0 
58 2 7 -15.85 11.95 13.4 0 0 0 
59 2 7 -17.9 11 9.8 0 0 0 
60 2 7 -19.95 10.05 8 0 0 0 
61 2 7 -17.9 11 5.5 0 0 0 
62 4 7 -15.85 11 2.5 0 0 0 
63 3 7 -17.9 11 24.5 0 0 0.4 
64 2 8 -17.9 16 21.5 0 0 0 
65 2 8 -17.9 16 17 0 0 0 
66 2 8 -19.95 15.05 13.4 0 0 0 
67 2 8 -15.85 16.95 13.4 0 0 0 
68 2 8 -17.9 16 9.8 0 0 0 
69 2 8 -19.95 15.05 8 0 0 0 
70 2 8 -17.9 16 5.5 0 0 0 
71 4 8 -15.85 16 2.5 0 0 0 
72 3 8 -17.9 16 24.5 0 0 0.4 
73 2 9 -12.9 -19 21.5 0 0 0 
74 2 9 -12.9 -19 17 0 0 0 
75 2 9 -14.95 -19.95 13.4 0 0 0 
76 2 9 -10.85 -18.05 13.4 0 0 0 
77 2 9 -12.9 -19 9.8 0 0 0 
78 2 9 -14.95 -19.95 8 0 0 0 
79 2 9 -12.9 -19 5.5 0 0 0 
80 4 9 -10.85 -19 2.5 0 0 0 
81 3 9 -12.9 -19 24.5 0 0 0.4 
82 2 10 -12.9 -14 21.5 0 0 0 
83 2 10 -12.9 -14 17 0 0 0 
84 2 10 -14.95 -14.95 13.4 0 0 0 
85 2 10 -10.85 -13.05 13.4 0 0 0 
86 2 10 -12.9 -14 9.8 0 0 0 
87 2 10 -14.95 -14.95 8 0 0 0 
88 2 10 -12.9 -14 5.5 0 0 0 
89 4 10 -10.85 -14 2.5 0 0 0 
90 3 10 -12.9 -14 24.5 0 0 0.4 
91 2 11 -12.9 -9 21.5 0 0 0 
92 2 11 -12.9 -9 17 0 0 0 
93 2 11 -14.95 -9.95 13.4 0 0 0 
94 2 11 -10.85 -8.05 13.4 0 0 0 
95 2 11 -12.9 -9 9.8 0 0 0 
96 2 11 -14.95 -9.95 8 0 0 0 
97 2 11 -12.9 -9 5.5 0 0 0 
98 4 11 -10.85 -9 2.5 0 0 0 
99 3 11 -12.9 -9 24.5 0 0 0.4 
100 2 12 -12.9 -4 21.5 0 0 0 
101 2 12 -12.9 -4 17 0 0 0 
102 2 12 -14.95 -4.95 13.4 0 0 0 
103 2 12 -10.85 -3.05 13.4 0 0 0 
104 2 12 -12.9 -4 9.8 0 0 0 
105 2 12 -14.95 -4.95 8 0 0 0 
106 2 12 -12.9 -4 5.5 0 0 0 
107 4 12 -10.85 -4 2.5 0 0 0 
108 3 12 -12.9 -4 24.5 0 0 0.4 
109 2 13 -12.9 1 21.5 0 0 0 
110 2 13 -12.9 1 17 0 0 0 
111 2 13 -14.95 0.05 13.4 0 0 0 
112 2 13 -10.85 1.95 13.4 0 0 0 
113 2 13 -12.9 1 9.8 0 0 0 
114 2 13 -14.95 0.05 8 0 0 0 
115 2 13 -12.9 1 5.5 0 0 0 
116 4 13 -10.85 1 2.5 0 0 0 
117 3 13 -12.9 1 24.5 0 0 0.4 
118 2 14 -12.9 6 21.5 0 0 0 
119 2 14 -12.9 6 17 0 0 0 
120 2 14 -14.95 5.05 13.4 0 0 0 
121 2 14 -10.85 6.95 13.4 0 0 0 
122 2 14 -12.9 6 9.8 0 0 0 
123 2 14 -14.95 5.05 8 0 0 0 
124 2 14 -12.9 6 5.5 0 0 0 
125 4 14 -10.85 6 2.5 0 0 0 
126 3 14 -12.9 6 24.5 0 0 0.4 
127 2 15 -12.9 11 21.5 0 0 0 
128 2 15 -12.9 11 17 0 0 0 
129 2 15 -14.95 10.05 13.4 0 0 0 
130 2 15 -10.85 11.95 13.4 0 0 0 
131 2 15 -12.9 11 9.8 0 0 0 
132 2 15 -14.95 10.05 8 0 0 0 
133 2 15 -12.9 11 5.5 0 0 0 
134 4 15 -10.85 11 2.5 0 0 0 
135 3 15 -12.9 11 24.5 0 0 0.4 
136 2 16 -12.9 16 21.5 0 0 0 
137 2 16 -12.9 16 17 0 0 0 
138 2 16 -14.95 15.05 13.4 0 0 0 
139 2 16 -10.85 16.95 13.4 0 0 0 
140 2 16 -12.9 16 9.8 0 0 0 
141 2 16 -14.95 15.05 8 0 0 0 
142 2 16 -12.9 16 5.5 0 0 0 
143 4 16 -10.85 16 2.5 0 0 0 
144 3 16 -12.9 16 24.5 0 0 0.4 
145 2 17 -7.9 -19 21.5 0 0 0 
146 2 17 -7.9 -19 17 0 0 0 
147 2 17 -9.95 -19.95 13.4 0 0 0 
148 2 17 -5.85 -18.05 13.4 0 0 0 
149 2 17 -7.9 -19 9.8 0 0 0 
150 2 17 -9.95 -19.95 8 0 0 0 
151 2 17 -7.9 -19 5.5 0 0 0 
152 4 17 -5.85 -19 2.5 0 0 0 
153 3 17 -7.9 -19 24.5 0 0 0.4 
154 2 18 -7.9 -14 21.5 0 0 0 
155 2 18 -7.9 -14 17 0 0 0 
156 2 18 -9.95 -14.95 13.4 0 0 0 
157 2 18 -5.85 -13.05 13.4 0 0 0 
158 2 18 -7.9 -14 9.8 0 0 0 
159 2 18 -9.95 -14.95 8 0 0 0 
160 2 18 -7.9 -14 5.5 0 0 0 
161 4 18 -5.85 -14 2.5 0 0 0 
162 3 18 -7.9 -14 24.5 0 0 0.4 
163 2 19 -7.9 -9 21.5 0 0 0 
164 2 19 -7.9 -9 17 0 0 0 
165 2 19 -9.95 -9.95 13.4 0 0 0 
166 2 19 -5.85 -8.05 13.4 0 0 0 
167 2 19 -7.9 -9 9.8 0 0 0 
168 2 19 -9.95 -9.95 8 0 0 0 
169 2 19 -7.9 -9 5.5 0 0 0 
170 4 19 -5.85 -9 2.5 0 0 0 
171 3 19 -7.9 -9 24.5 0 0 0.4 
172 2 20 -7.9 -4 21.5 0 0 0 
173 2 20 -7.9 -4 17 0 0 0 
174 2 20 -9.95 -4.95 13.4 0 0 0 
175 2 20 -5.85 -3.05 13.4 0 0 0 
176 2 20 -7.9 -4 9.8 0 0 0 
177 2 20 -9.95 -4.95 8 0 0 0 
178 2 20 -7.9 -4 5.5 0 0 0 
179 4 20 -5.85 -4 2.5 0 0 0 
180 3 20 -7.9 -4 24.5 0 0 0.4 
181 2 21 -7.9 1 21.5 0 0 0 
182 2 21 -7.9 1 17 0 0 0 
183 2 21 -9.95 0.05 13.4 0 0 0 
184 2 21 -5.85 1.95 13.4 0 0 0 
185 2 21 -7.9 1 9.8 0 0 0 
186 2 21 -9.95 0.05 8 0 0 0 
187 2 21 -7.9 1 5.5 0 0 0 
188 4 21 -5.85 1 2.5 0 0 0 
189 3 21 -7.9 1 24.5 0 0 0.4 
190 2 22 -7.9 6 21.5 0 0 0 
191 2 22 -7.9 6 17 0 0 0 
192 2 22 -9.95 5.05 13.4 0 0 0 
193 2 22 -5.85 6.95 13.4 0 0 0 
194 2 22 -7.9 6 9.8 0 0 0 
195 2 22 -9.95 5.05 8 0 0 0 
196 2 22 -7.9 6 5.5 0 0 0 
197 4 22 -5.85 6 2.5 0 0 0 
198 3 22 -7.9 6 24.5 0 0 0.4 
199 2 23 -7.9 11 21.5 0 0 0 
200 2 23 -7.9 11 17 0 0 0 
201 2 23 -9.95 10.05 13.4 0 0 0 
202 2 23 -5.85 11.95 13.4 0 0 0 
203 2 23 -7.9 11 9.8 0 0 0 
204 2 23 -9.95 10.05 8 0 0 0 
205 2 23 -7.9 11 5.5 0 0 0 
206 4 23 -5.85 11 2.5 0 0 0 
207 3 23 -7.9 11 24.5 0 0 0.4 
208 2 24 -7.9 16 21.5 0 0 0 
209 2 24 -7.9 16 17 0 0 0 
210 2 24 -9.95 15.05 13.4 0 0 0 
211 2 24 -5.85 16.95 13.4 0 0 0 
212 2 24 -7.9 16 9.8 0 0 0 
213 2 24 -9.95 15.05 8 0 0 0 
214 2 24 -7.9 16 5.5 0 0 0 
215 4 24 -5.85 16 2.5 0 0 0 
216 3 24 -7.9 16 24.5 0 0 0.4 
217 2 25 -2.9 -19 21.5 0 0 0 
218 2 25 -2.9 -19 17 0 0 0 
219 2 25 -4.95 -19.95 13.4 0 0 0 
220 2 25 -0.85 -18.05 13.4 0 0 0 
221 2 25 -2.9 -19 9.8 0 0 0 
222 2 25 -4.95 -19.95 8 0 0 0 
223 2 25 -2.9 -19 5.5 0 0 0 
224 4 25 -0.85 -19 2.5 0 0 0 
225 3 25 -2.9 -19 24.5 0 0 0.4 
226 2 26 -2.9 -14 21.5 0 0 0 
227 2 26 -2.9 -14 17 0 0 0 
228 2 26 -4.95 -14.95 13.4 0 0 0 
229 2 26 -0.85 -13.05 13.4 0 0 0 
230 2 26 -2.9 -14 9.8 0 0 0 
231 2 26 -4.95 -14.95 8 0 0 0 
232 2 26 -2.9 -14 5.5 0 0 0 
233 4 26 -0.85 -14 2.5 0 0 0 
234 3 26 -2.9 -14 24.5 0 0 0.4 
235 2 27 -2.9 -9 21.5 0 0 0 
236 2 27 -2.9 -9 17 0 0 0 
237 2 27 -4.95 -9.95 13.4 0 0 0 
238 2 27 -0.85 -8.05 13.4 0 0 0 
239 2 27 -2.9 -9 9.8 0 0 0 
240 2 27 -4.95 -9.95 8 0 0 0 
241 2 27 -2.9 -9 5.5 0 0 0 
242 4 27 -0.85 -9 2.5 0 0 0 
243 3 27 -2.9 -9 24.5 0 0 0.4 
244 2 28 -2.9 -4 21.5 0 0 0 
245 2 28 -2.9 -4 17 0 0 0 
246 2 28 -4.95 -4.95 13.4 0 0 0 
247 2 28 -0.85 -3.05 13.4 0 0 0 
248 2 28 -2.9 -4 9.8 0 0 0 
249 2 28 -4.95 -4.95 8 0 0 0 
250 2 28 -2.9 -4 5.5 0 0 0 
251 4 28 -0.85 -4 2.5 0 0 0 
252 3 28 -2.9 -4 24.5 0 0 0.4 
253 2 29 -2.9 1 21.5 0 0 0 
254 2 29 -2.9 1 17 0 0 0 
255 2 29 -4.95 0.05 13.4 0 0 0 
256 2 29 -0.85 1.95 13.4 0 0 0 
257 2 29 -2.9 1 9.8 0 0 0 
258 2 29 -4.95 0.05 8 0 0 0 
259 2 29 -2.9 1 5.5 0 0 0 
260 4 29 -0.85 1 2.5 0 0 0 
261 3 29 -2.9 1 24.5 0 0 0.4 
262 2 30 -2.9 6 21.5 0 0 0 
263 2 30 -2.9 6 17 0 0 0 
264 2 30 -4.95 5.05 13.4 0 0 0 
265 2 30 -0.85 6.95 13.4 0 0 0 
266 2 30 -2.9 6 9.8 0 0 0 
267 2 30 -4.95 5.05 8 0 0 0 
268 2 30 -2.9 6 5.5 0 0 0 
269 4 30 -0.85 6 2.5 0 0 0 
270 3 30 -2.9 6 24.5 0 0 0.4 
271 2 31 -2.9 11 21.5 0 0 0 
272 2 31 -2.9 11 17 0 0 0 
273 2 31 -4.95 10.05 13.4 0 0 0 
274 2 31 -0.85 11.95 13.4 0 0 0 
275 2 31 -2.9 11 9.8 0 0 0 
276 2 31 -4.95 10.05 8 0 0 0 
277 2 31 -2.9 11 5.5 0 0 0 
278 4 31 -0.85 11 2.5 0 0 0 
279 3 31 -2.9 11 24.5 0 0 0.4 
280 2 32 -2.9 16 21.5 0 0 0 
281 2 32 -2.9 16 17 0 0 0 
282 2 32 -4.95 15.05 13.4 0 0 0 
283 2 32 -0.85 16.95 13.4 0 0 0 
284 2 32 -2.9 16 9.8 0 0 0 
285 2 32 -4.95 15.05 8 0 0 0 
286 2 32 -2.9 16 5.5 0 0 0 
287 4 32 -0.85 16 2.5 0 0 0 
288 3 32 -2.9 16 24.5 0 0 0.4 
289 2 33 2.1 -19 21.5 0 0 0 
290 2 33 2.1 -19 17 0 0 0 
291 2 33 0.05 -19.95 13.4 0 0 0 
292 2 33 4.15 -18.05 13.4 0 0 0 
293 2 33 2.1 -19 9.8 0 0 0 
294 2 33 0.05 -19.95 8 0 0 0 
295 2 33 2.1 -19 5.5 0 0 0 
296 4 33 4.15 -19 2.5 0 0 0 
297 3 33 2.1 -19 24.5 0 0 0.4 
298 2 34 2.1 -14 21.5 0 0 0 
299 2 34 2.1 -14 17 0 0 0 
300 2 34 0.05 -14.95 13.4 0 0 0 
301 2 34 4.15 -13.05 13.4 0 0 0 
302 2 34 2.1 -14 9.8 0 0 0 
303 2 34 0.05 -14.95 8 0 0 0 
304 2 34 2.1 -14 5.5 0 0 0 
305 4 34 4.15 -14 2.5 0 0 0 
306 3 34 2.1 -14 24.5 0 0 0.4 
307 2 35 2.1 -9 21.5 0 0 0 
308 2 35 2.1 -9 17 0 0 0 
309 2 35 0.05 -9.95 13.4 0 0 0 
310 2 35 4.15 -8.05 13.4 0 0 0 
311 2 35 2.1 -9 9.8 0 0 0 
312 2 35 0.05 -9.95 8 0 0 0 
313 2 35 2.1 -9 5.5 0 0 0 
314 4 35 4.15 -9 2.5 0 0 0 
315 3 35 2.1 -9 24.5 0 0 0.4 
316 2 36 2.1 -4 21.5 0 0 0 
317 2 36 2.1 -4 17 0 0 0 
318 2 36 0.05 -4.95 13.4 0 0 0 
319 2 36 4.15 -3.05 13.4 0 0 0 
320 2 36 2.1 -4 9.8 0 0 0 
321 2 36 0.05 -4.95 8 0 0 0 
322 2 36 2.1 -4 5.5 0 0 0 
323 4 36 4.15 -4 2.5 0 0 0 
324 3 36 2.1 -4 24.5 0 0 0.4 
325 2 37 2.1 1 21.5 0 0 0 
326 2 37 2.1 1 17 0 0 0 
327 2 37 0.05 0.05 13.4 0 0 0 
328 2 37 4.15 1.95 13.4 0 0 0 
329 2 37 2.1 1 9.8 0 0 0 
330 2 37 0.05 0.05 8 0 0 0 
331 2 37 2.1 1 5.5 0 0 0 
332 4 37 4.15 1 2.5 0 0 0 
333 3 37 2.1 1 24.5 0 0 0.4 
334 2 38 2.1 6 21.5 0 0 0 
335 2 38 2.1 6 17 0 0 0 
336 2 38 0.05 5.05 13.4 0 0 0 
337 2 38 4.15 6.95 13.4 0 0 0 
338 2 38 2.1 6 9.8 0 0 0 
339 2 38 0.05 5.05 8 0 0 0 
340 2 38 2.1 6 5.5 0 0 0 
341 4 38 4.15 6 2.5 0 0 0 
342 3 38 2.1 6 24.5 0 0 0.4 
343 2 39 2.1 11 21.5 0 0 0 
344 2 39 2.1 11 17 0 0 0 
345 2 39 0.05 10.05 13.4 0 0 0 
346 2 39 4.15 11.95 13.4 0 0 0 
347 2 39 2.1 11 9.8 0 0 0 
348 2 39 0.05 10.05 8 0 0 0 
349 2 39 2.1 11 5.5 0 0 0 
350 4 39 4.15 11 2.5 0 0 0 
351 3 39 2.1 11 24.5 0 0 0.4 
352 2 40 2.1 16 21.5 0 0 0 
353 2 40 2.1 16 17 0 0 0 
354 2 40 0.05 15.05 13.4 0 0 0 
355 2 40 4.15 16.95 13.4 0 0 0 
356 2 40 2.1 16 9.8 0 0 0 
357 2 40 0.05 15.05 8 0 0 0 
358 2 40 2.1 16 5.5 0 0 0 
359 4 40 4.15 16 2.5 0 0 0 
360 3 40 2.1 16 24.5 0 0 0.4 
361 2 41 7.1 -19 21.5 0 0 0 
362 2 41 7.1 -19 17 0 0 0 
363 2 41 5.05 -19.95 13.4 0 0 0 
364 2 41 9.15 -18.05 13.4 0 0 0 
365 2 41 7.1 -19 9.8 0 0 0 
366 2 41 5.05 -19.95 8 0 0 0 
367 2 41 7.1 -19 5.5 0 0 0 
368 4 41 9.15 -19 2.5 0 0 0 
369 3 41 7.1 -19 24.5 0 0 0.4 
370 2 42 7.1 -14 21.5 0 0 0 
371 2 42 7.1 -14 17 0 0 0 
372 2 42 5.05 -14.95 13.4 0 0 0 
373 2 42 9.15 -13.05 13.4 0 0 0 
374 2 42 7.1 -14 9.8 0 0 0 
375 2 42 5.05 -14.95 8 0 0 0 
376 2 42 7.1 -14 5.5 0 0 0 
377 4 42 9.15 -14 2.5 0 0 0 
378 3 42 7.1 -14 24.5 0 0 0.4 
379 2 43 7.1 -9 21.5 0 0 0 
380 2 43 7.1 -9 17 0 0 0 
381 2 43 5.05 -9.95 13.4 0 0 0 
382 2 43 9.15 -8.05 13.4 0 0 0 
383 2 43 7.1 -9 9.8 0 0 0 
384 2 43 5.05 -9.95 8 0 0 0 
385 2 43 7.1 -9 5.5 0 0 0 
386 4 43 9.15 -9 2.5 0 0 0 
387 3 43 7.1 -9 24.5 0 0 0.4 
388 2 44 7.1 -4 21.5 0 0 0 
389 2 44 7.1 -4 17 0 0 0 
390 2 44 5.05 -4.95 13.4 0 0 0 
391 2 44 9.15 -3.05 13.4 0 0 0 
392 2 44 7.1 -4 9.8 0 0 0 
393 2 44 5.05 -4.95 8 0 0 0 
394 2 44 7.1 -4 5.5 0 0 0 
395 4 44 9.15 -4 2.5 0 0 0 
396 3 44 7.1 -4 24.5 0 0 0.4 
397 2 45 7.1 1 21.5 0 0 0 
398 2 45 7.1 1 17 0 0 0 
399 2 45 5.05 0.05 13.4 0 0 0 
400 2 45 9.15 1.95 13.4 0 0 0 
401 2 45 7.1 1 9.8 0 0 0 
402 2 45 5.05 0.05 8 0 0 0 
403 2 45 7.1 1 5.5 0 0 0 
404 4 45 9.15 1 2.5 0 0 0 
405 3 45 7.1 1 24.5 0 0 0.4 
406 2 46 7.1 6 21.5 0 0 0 
407 2 46 7.1 6 17 0 0 0 
408 2 46 5.05 5.05 13.4 0 0 0 
409 2 46 9.15 6.95 13.4 0 0 0 
410 2 46 7.1 6 9.8 0 0 0 
411 2 46 5.05 5.05 8 0 0 0 
412 2 46 7.1 6 5.5 0 0 0 
413 4 46 9.15 6 2.5 0 0 0 
414 3 46 7.1 6 24.5 0 0 0.4 
415 2 47 7.1 11 21.5 0 0 0 
416 2 47 7.1 11 17 0 0 0 
417 2 47 5.05 10.05 13.4 0 0 0 
418 2 47 9.15 11.95 13.4 0 0 0 
419 2 47 7.1 11 9.8 0 0 0 
420 2 47 5.05 10.05 8 0 0 0 
421 2 47 7.1 11 5.5 0 0 0 
422 4 47 9.15 11 2.5 0 0 0 
423 3 47 7.1 11 24.5 0 0 0.4 
424 2 48 7.1 16 21.5 0 0 0 
425 2 48 7.1 16 17 0 0 0 
426 2 48 5.05 15.05 13.4 0 0 0 
427 2 48 9.15 16.95 13.4 0 0 0 
428 2 48 7.1 16 9.8 0 0 0 
429 2 48 5.05 15.05 8 0 0 0 
430 2 48 7.1 16 5.5 0 0 0 
431 4 48 9.15 16 2.5 0 0 0 
432 3 48 7.1 16 24.5 0 0 0.4 
433 2 49 12.1 -19 21.5 0 0 0 
434 2 49 12.1 -19 17 0 0 0 
435 2 49 10.05 -19.95 13.4 0 0 0 
436 2 49 14.15 -18.05 13.4 0 0 0 
437 2 49 12.1 -19 9.8 0 0 0 
438 2 49 10.05 -19.95 8 0 0 0 
439 2 49 12.1 -19 5.5 0 0 0 
440 4 49 14.15 -19 2.5 0 0 0 
441 3 49 12.1 -19 24.5 0 0 0.4 
442 2 50 12.1 -14 21.5 0 0 0 
443 2 50 12.1 -14 17 0 0 0 
444 2 50 10.05 -14.95 13.4 0 0 0 
445 2 50 14.15 -13.05 13.4 0 0 0 
446 2 50 12.1 -14 9.8 0 0 0 
447 2 50 10.05 -14.95 8 0 0 0 
448 2 50 12.1 -14 5.5 0 0 0 
449 4 50 14.15 -14 2.5 0 0 0 
450 3 50 12.1 -14 24.5 0 0 0.4 
451 2 51 12.1 -9 21.5 0 0 0 
452 2 51 12.1 -9 17 0 0 0 
453 2 51 10.05 -9.95 13.4 0 0 0 
454 2 51 14.15 -8.05 13.4 0 0 0 
455 2 51 12.1 -9 9.8 0 0 0 
456 2 51 10.05 -9.95 8 0 0 0 
457 2 51 12.1 -9 5.5 0 0 0 
458 4 51 14.15 -9 2.5 0 0 0 
459 3 51 12.1 -9 24.5 0 0 0.4 
460 2 52 12.1 -4 21.5 0 0 0 
461 2 52 12.1 -4 17 0 0 0 
462 2 52 10.05 -4.95 13.4 0 0 0 
463 2 52 14.15 -3.05 13.4 0 0 0 
464 2 52 12.1 -4 9.8 0 0 0 
465 2 52 10.05 -4.95 8 0 0 0 
466 2 52 12.1 -4 5.5 0 0 0 
467 4 52 14.15 -4 2.5 0 0 0 
468 3 52 12.1 -4 24.5 0 0 0.4 
469 2 53 12.1 1 21.5 0 0 0 
470 2 53 12.1 1 17 0 0 0 
471 2 53 10.05 0.05 13.4 0 0 0 
472 2 53 14.15 1.95 13.4 0 0 0 
473 2 53 12.1 1 9.8 0 0 0 
474 2 53 10.05 0.05 8 0 0 0 
475 2 53 12.1 1 5.5 0 0 0 
476 4 53 14.15 1 2.5 0 0 0 
477 3 53 12.1 1 24.5 0 0 0.4 
478 2 54 12.1 6 21.5 0 0 0 
479 2 54 12.1 6 17 0 0 0 
480 2 54 10.05 5.05 13.4 0 0 0 
481 2 54 14.15 6.95 13.4 0 0 0 
482 2 54 12.1 6 9.8 0 0 0 
483 2 54 10.05 5.05 8 0 0 0 
484 2 54 12.1 6 5.5 0 0 0 
485 4 54 14.15 6 2.5 0 0 0 
486 3 54 12.1 6 24.5 0 0 0.4 
487 2 55 12.1 11 21.5 0 0 0 
488 2 55 12.1 11 17 0 0 0 
489 2 55 10.05 10.05 13.4 0 0 0 
490 2 55 14.15 11.95 13.4 0 0 0 
491 2 55 12.1 11 9.8 0 0 0 
492 2 55 10.05 10.05 8 0 0 0 
493 2 55 12.1 11 5.5 0 0 0 
494 4 55 14.15 11 2.5 0 0 0 
495 3 55 12.1 11 24.5 0 0 0.4 
496 2 56 12.1 16 21.5 0 0 0 
497 2 56 12.1 16 17 0 0 0 
498 2 56 10.05 15.05 13.4 0 0 0 
499 2 56 14.15 16.95 13.4 0 0 0 
500 2 56 12.1 16 9.8 0 0 0 
501 2 56 10.05 15.05 8 0 0 0 
502 2 56 12.1 16 5.5 0 0 0 
503 4 56 14.15 16 2.5 0 0 0 
504 3 56 12.1 16 24.5 0 0 0.4 
505 2 57 17.1 -19 21.5 0 0 0 
506 2 57 17.1 -19 17 0 0 0 
507 2 57 15.05 -19.95 13.4 0 0 0 
508 2 57 19.15 -18.05 13.4 0 0 0 
509 2 57 17.1 -19 9.8 0 0 0 
510 2 57 15.05 -19.95 8 0 0 0 
511 2 57 17.1 -19 5.5 0 0 0 
512 4 57 19.15 -19 2.5 0 0 0 
513 3 57 17.1 -19 24.5 0 0 0.4 
514 2 58 17.1 -14 21.5 0 0 0 
515 2 58 17.1 -14 17 0 0 0 
516 2 58 15.05 -14.95 13.4 0 0 0 
517 2 58 19.15 -13.05 13.4 0 0 0 
518 2 58 17.1 -14 9.8 0 0 0 
519 2 58 15.05 -14.95 8 0 0 0 
520 2 58 17.1 -14 5.5 0 0 0 
521 4 58 19.15 -14 2.5 0 0 0 
522 3 58 17.1 -14 24.5 0 0 0.4 
523 2 59 17.1 -9 21.5 0 0 0 
524 2 59 17.1 -9 17 0 0 0 
525 2 59 15.05 -9.95 13.4 0 0 0 
526 2 59 19.15 -8.05 13.4 0 0 0 
527 2 59 17.1 -9 9.8 0 0 0 
528 2 59 15.05 -9.95 8 0 0 0 
529 2 59 17.1 -9 5.5 0 0 0 
530 4 59 19.15 -9 2.5 0 0 0 
531 3 59 17.1 -9 24.5 0 0 0.4 
532 2 60 17.1 -4 21.5 0 0 0 
533 2 60 17.1 -4 17 0 0 0 
534 2 60 15.05 -4.95 13.4 0 0 0 
535 2 60 19.15 -3.05 13.4 0 0 0 
536 2 60 17.1 -4 9.8 0 0 0 
537 2 60 15.05 -4.95 8 0 0 0 
538 2 60 17.1 -4 5.5 0 0 0 
539 4 60 19.15 -4 2.5 0 0 0 
540 3 60 17.1 -4 24.5 0 0 0.4 
541 2 61 17.1 1 21.5 0 0 0 
542 2 61 17.1 1 17 0 0 0 
543 2 61 15.05 0.05 13.4 0 0 0 
544 2 61 19.15 1.95 13.4 0 0 0 
545 2 61 17.1 1 9.8 0 0 0 
546 2 61 15.05 0.05 8 0 0 0 
547 2 61 17.1 1 5.5 0 0 0 
548 4 61 19.15 1 2.5 0 0 0 
549 3 61 17.1 1 24.5 0 0 0.4 
550 2 62 17.1 6 21.5 0 0 0 
551 2 62 17.1 6 17 0 0 0 
552 2 62 15.05 5.05 13.4 0 0 0 
553 2 62 19.15 6.95 13.4 0 0 0 
554 2 62 17.1 6 9.8 0 0 0 
555 2 62 15.05 5.05 8 0 0 0 
556 2 62 17.1 6 5.5 0 0 0 
557 4 62 19.15 6 2.5 0 0 0 
558 3 62 17.1 6 24.5 0 0 0.4 
559 2 63 17.1 11 21.5 0 0 0 
560 2 63 17.1 11 17 0 0 0 
561 2 63 15.05 10.05 13.4 0 0 0 
562 2 63 19.15 11.95 13.4 0 0 0 
563 2 63 17.1 11 9.8 0 0 0 
564 2 63 15.05 10.05 8 0 0 0 
565 2 63 17.1 11 5.5 0 0 0 
566 4 63 19.15 11 2.5 0 0 0 
567 3 63 17.1 11 24.5 0 0 0.4 
568 2 64 17.1 16 21.5 0 0 0 
569 2 64 17.1 16 17 0 0 0 
570 2 64 15.05 15.05 13.4 0 0 0 
571 2 64 19.15 16.95 13.4 0 0 0 
572 2 64 17.1 16 9.8 0 0 0 
573 2 64 15.05 15.05 8 0 0 0 
574 2 64 17.1 16 5.5 0 0 0 
575 4 64 19.15 16 2.5 0 0 0 
576 3 64 17.1 16 24.5 0 0 0.4 
577 2 65 -17.9 -19 -21.5 0 0 -0 
578 2 65 -17.9 -19 -17 0 0 -0 
579 2 65 -19.95 -19.95 -13.4 0 0 -0 
580 2 65 -15.85 -18.05 -13.4 0 0 -0 
581 2 65 -17.9 -19 -9.8 0 0 -0 
582 2 65 -19.95 -19.95 -8 0 0 -0 
583 2 65 -17.9 -19 -5.5 0 0 -0 
584 4 65 -15.85 -19 -2.5 0 0 -0 
585 3 65 -17.9 -19 -24.5 0 0 -0.4 
586 2 66 -17.9 -14 -21.5 0 0 -0 
587 2 66 -17.9 -14 -17 0 0 -0 
588 2 66 -19.95 -14.95 -13.4 0 0 -0 
589 2 66 -15.85 -13.05 -13.4 0 0 -0 
590 2 66 -17.9 -14 -9.8 0 0 -0 
591 2 66 -19.95 -14.95 -8 0 0 -0 
592 2 66 -17.9 -14 -5.5 0 0 -0 
593 4 66 -15.85 -14 -2.5 0 0 -0 
594 3 66 -17.9 -14 -24.5 0 0 -0.4 
595 2 67 -17.9 -9 -21.5 0 0 -0 
596 2 67 -17.9 -9 -17 0 0 -0 
597 2 67 -19.95 -9.95 -13.4 0 0 -0 
598 2 67 -15.85 -8.05 -13.4 0 0 -0 
599 2 67 -17.9 -9 -9.8 0 0 -0 
600 2 67 -19.95 -9.95 -8 0 0 -0 
601 2 67 -17.9 -9 -5.5 0 0 -0 
602 4 67 -15.85 -9 -2.5 0 0 -0 
603 3 67 -17.9 -9 -24.5 0 0 -0.4 
604 2 68 -17.9 -4 -21.5 0 0 -0 
605 2 68 -17.9 -4 -17 0 0 -0 
606 2 68 -19.95 -4.95 -13.4 0 0 -0 
607 2 68 -15.85 -3.05 -13.4 0 0 -0 
608 2 68 -17.9 -4 -9.8 0 0 -0 
609 2 68 -19.95 -4.95 -8 0 0 -0 
610 2 68 -17.9 -4 -5.5 0 0 -0 
611 4 68 -15.85 -4 -2.5 0 0 -0 
612 3 68 -17.9 -4 -24.5 0 0 -0.4 
613 2 69 -17.9 1 -21.5 0 0 -0 
614 2 69 -17.9 1 -17 0 0 -0 
615 2 69 -19.95 0.05 -13.4 0 0 -0 
616 2 69 -15.85 1.95 -13.4 0 0 -0 
617 2 69 -17.9 1 -9.8 0 0 -0 
618 2 69 -19.95 0.05 -8 0 0 -0 
619 2 69 -17.9 1 -5.5 0 0 -0 
620 4 69 -15.85 1 -2.5 0 0 -0 
621 3 69 -17.9 1 -24.5 0 0 -0.4 
622 2 70 -17.9 6 -21.5 0 0 -0 
623 2 70 -17.9 6 -17 0 0 -0 
624 2 70 -19.95 5.05 -13.4 0 0 -0 
625 2 70 -15.85 6.95 -13.4 0 0 -0 
626 2 70 -17.9 6 -9.8 0 0 -0 
627 2 70 -19.95 5.05 -8 0 0 -0 
628 2 70 -17.9 6 -5.5 0 0 -0 
629 4 70 -15.85 6 -2.5 0 0 -0 
630 3 70 -17.9 6 -24.5 0 0 -0.4 
631 2 71 -17.9 11 -21.5 0 0 -0 
632 2 71 -17.9 11 -17 0 0 -0 
633 2 71 -19.95 10.05 -13.4 0 0 -0 
634 2 71 -15.85 11.95 -13.4 0 0 -0 
635 2 71 -17.9 11 -9.8 0 0 -0 
636 2 71 -19.95 10.05 -8 0 0 -0 
637 2 71 -17.9 11 -5.5 0 0 -0 
638 4 71 -15.85 11 -2.5 0 0 -0 
639 3 71 -17.9 11 -24.5 0 0 -0.4 
640 2 72 -17.9 16 -21.5 0 0 -0 
641 2 72 -17.9 16 -17 0 0 -0 
642 2 72 -19.95 15.05 -13.4 0 0 -0 
643 2 72 -15.85 16.95 -13.4 0 0 -0 
644 2 72 -17.9 16 -9.8 0 0 -0 
645 2 72 -19.95 15.05 -8 0 0 -0 
646 2 72 -17.9 16 -5.5 0 0 -0 
647 4 72 -15.85 16 -2.5 0 0 -0 
648 3 72 -17.9 16 -24.5 0 0 -0.4 
649 2 73 -12.9 -19 -21.5 0 0 -0 
650 2 73 -12.9 -19 -17 0 0 -0 
651 2 73 -14.95 -19.95 -13.4 0 0 -0 
652 2 73 -10.85 -18.05 -13.4 0 0 -0 
653 2 73 -12.9 -19 -9.8 0 0 -0 
654 2 73 -14.95 -19.95 -8 0 0 -0 
655 2 73 -12.9 -19 -5.5 0 0 -0 
656 4 73 -10.85 -19 -2.5 0 0 -0 
657 3 73 -12.9 -19 -24.5 0 0 -0.4 
658 2 74 -12.9 -14 -21.5 0 0 -0 
659 2 74 -12.9 -14 -17 0 0 -0 
660 2 74 -14.95 -14.95 -13.4 0 0 -0 
661 2 74 -10.85 -13.05 -13.4 0 0 -0 
662 2 74 -12.9 -14 -9.8 0 0 -0 
663 2 74 -14.95 -14.95 -8 0 0 -0 
664 2 74 -12.9 -14 -5.5 0 0 -0 
665 4 74 -10.85 -14 -2.5 0 0 -0 
666 3 74 -12.9 -14 -24.5 0 0 -0.4 
667 2 75 -12.9 -9 -21.5 0 0 -0 
668 2 75 -12.9 -9 -17 0 0 -0 
669 2 75 -14.95 -9.95 -13.4 0 0 -0 
670 2 75 -10.85 -8.05 -13.4 0 0 -0 
671 2 75 -12.9 -9 -9.8 0 0 -0 
672 2 75 -14.95 -9.95 -8 0 0 -0 
673 2 75 -12.9 -9 -5.5 0 0 -0 
674 4 75 -10.85 -9 -2.5 0 0 -0 
675 3 75 -12.9 -9 -24.5 0 0 -0.4 
676 2 76 -12.9 -4 -21.5 0 0 -0 
677 2 76 -12.9 -4 -17 0 0 -0 
678 2 76 -14.95 -4.95 -13.4 0 0 -0 
679 2 76 -10.85 -3.05 -13.4 0 0 -0 
680 2 76 -12.9 -4 -9.8 0 0 -0 
681 2 76 -14.95 -4.95 -8 0 0 -0 
682 2 76 -12.9 -4 -5.5 0 0 -0 
683 4 76 -10.85 -4 -2.5 0 0 -0 
684 3 76 -12.9 -4 -24.5 0 0 -0.4 
685 2 77 -12.9 1 -21.5 0 0 -0 
686 2 77 -12.9 1 -17 0 0 -0 
687 2 77 -14.95 0.05 -13.4 0 0 -0 
688 2 77 -10.85 1.95 -13.4 0 0 -0 
689 2 77 -12.9 1 -9.8 0 0 -0 
690 2 77 -14.95 0.05 -8 0 0 -0 
691 2 77 -12.9 1 -5.5 0 0 -0 
692 4 77 -10.85 1 -2.5 0 0 -0 
693 3 77 -12.9 1 -24.5 0 0 -0.4 
694 2 78 -12.9 6 -21.5 0 0 -0 
695 2 78 -12.9 6 -17 0 0 -0 
696 2 78 -14.95 5.05 -13.4 0 0 -0 
697 2 78 -10.85 6.95 -13.4 0 0 -0 
698 2 78 -12.9 6 -9.8 0 0 -0 
699 2 78 -14.95 5.05 -8 0 0 -0 
700 2 78 -12.9 6 -5.5 0 0 -0 
701 4 78 -10.85 6 -2.5 0 0 -0 
702 3 78 -12.9 6 -24.5 0 0 -0.4 
703 2 79 -12.9 11 -21.5 0 0 -0 
704 2 79 -12.9 11 -17 0 0 -0 
705 2 79 -14.95 10.05 -13.4 0 0 -0 
706 2 79 -10.85 11.95 -13.4 0 0 -0 
707 2 79 -12.9 11 -9.8 0 0 -0 
708 2 79 -14.95 10.05 -8 0 0 -0 
709 2 79 -12.9 11 -5.5 0 0 -0 
710 4 79 -10.85 11 -2.5 0 0 -0 
711 3 79 -12.9 11 -24.5 0 0 -0.4 
712 2 80 -12.9 16 -21.5 0 0 -0 
713 2 80 -12.9 16 -17 0 0 -0 
714 2 80 -14.95 15.05 -13.4 0 0 -0 
715 2 80 -10.85 16.95 -13.4 0 0 -0 
716 2 80 -12.9 16 -9.8 0 0 -0 
717 2 80 -14.95 15.05 -8 0 0 -0 
718 2 80 -12.9 16 -5.5 0 0 -0 
719 4 80 -10.85 16 -2.5 0 0 -0 
720 3 80 -12.9 16 -24.5 0 0 -0.4 
721 2 81 -7.9 -19 -21.5 0 0 -0 
722 2 81 -7.9 -19 -17 0 0 -0 
723 2 81 -9.95 -19.95 -13.4 0 0 -0 
724 2 81 -5.85 -18.05 -13.4 0 0 -0 
725 2 81 -7.9 -19 -9.8 0 0 -0 
726 2 81 -9.95 -19.95 -8 0 0 -0 
727 2 81 -7.9 -19 -5.5 0 0 -0 
728 4 81 -5.85 -19 -2.5 0 0 -0 
729 3 81 -7.9 -19 -24.5 0 0 -0.4 
730 2 82 -7.9 -14 -21.5 0 0 -0 
731 2 82 -7.9 -14 -17 0 0 -0 
732 2 82 -9.95 -14.95 -13.4 0 0 -0 
733 2 82 -5.85 -13.05 -13.4 0 0 -0 
734 2 82 -7.9 -14 -9.8 0 0 -0 
735 2 82 -9.95 -14.95 -8 0 0 -0 
736 2 82 -7.9 -14 -5.5 0 0 -0 
737 4 82 -5.85 -14 -2.5 0 0 -0 
738 3 82 -7.9 -14 -24.5 0 0 -0.4 
739 2 83 -7.9 -9 -21.5 0 0 -0 
740 2 83 -7.9 -9 -17 0 0 -0 
741 2 83 -9.95 -9.95 -13.4 0 0 -0 
742 2 83 -5.85 -8.05 -13.4 0 0 -0 
743 2 83 -7.9 -9 -9.8 0 0 -0 
744 2 83 -9.95 -9.95 -8 0 0 -0 
745 2 83 -7.9 -9 -5.5 0 0 -0 
746 4 83 -5.85 -9 -2.5 0 0 -0 
747 3 83 -7.9 -9 -24.5 0 0 -0.4 
748 2 84 -7.9 -4 -21.5 0 0 -0 
749 2 84 -7.9 -4 -17 0 0 -0 
750 2 84 -9.95 -4.95 -13.4 0 0 -0 
751 2 84 -5.85 -3.05 -13.4 0 0 -0 
752 2 84 -7.9 -4 -9.8 0 0 -0 
753 2 84 -9.95 -4.95 -8 0 0 -0 
754 2 84 -7.9 -4 -5.5 0 0 -0 
755 4 84 -5.85 -4 -2.5 0 0 -0 
756 3 84 -7.9 -4 -24.5 0 0 -0.4 
757 2 85 -7.9 1 -21.5 0 0 -0 
758 2 85 -7.9 1 -17 0 0 -0 
759 2 85 -9.95 0.05 -13.4 0 0 -0 
760 2 85 -5.85 1.95 -13.4 0 0 -0 
761 2 85 -7.9 1 -9.8 0 0 -0 
762 2 85 -9.95 0.05 -8 0 0 -0 
763 2 85 -7.9 1 -5.5 0 0 -0 
764 4 85 -5.85 1 -2.5 0 0 -0 
765 3 85 -7.9 1 -24.5 0 0 -0.4 
766 2 86 -7.9 6 -21.5 0 0 -0 
767 2 86 -7.9 6 -17 0 0 -0 
768 2 86 -9.95 5.05 -13.4 0 0 -0 
769 2 86 -5.85 6.95 -13.4 0 0 -0 
770 2 86 -7.9 6 -9.8 0 0 -0 
771 2 86 -9.95 5.05 -8 0 0 -0 
772 2 86 -7.9 6 -5.5 0 0 -0 
773 4 86 -5.85 6 -2.5 0 0 -0 
774 3 86 -7.9 6 -24.5 0 0 -0.4 
775 2 87 -7.9 11 -21.5 0 0 -0 
776 2 87 -7.9 11 -17 0 0 -0 
777 2 87 -9.95 10.05 -13.4 0 0 -0 
778 2 87 -5.85 11.95 -13.4 0 0 -0 
779 2 87 -7.9 11 -9.8 0 0 -0 
780 2 87 -9.95 10.05 -8 0 0 -0 
781 2 87 -7.9 11 -5.5 0 0 -0 
782 4 87 -5.85 11 -2.5 0 0 -0 
783 3 87 -7.9 11 -24.5 0 0 -0.4 
784 2 88 -7.9 16 -21.5 0 0 -0 
785 2 88 -7.9 16 -17 0 0 -0 
786 2 88 -9.95 15.05 -13.4 0 0 -0 
787 2 88 -5.85 16.95 -13.4 0 0 -0 
788 2 88 -7.9 16 -9.8 0 0 -0 
789 2 88 -9.95 15.05 -8 0 0 -0 
790 2 88 -7.9 16 -5.5 0 0 -0 
791 4 88 -5.85 16 -2.5 0 0 -0 
792 3 88 -7.9 16 -24.5 0 0 -0.4 
793 2 89 -2.9 -19 -21.5 0 0 -0 
794 2 89 -2.9 -19 -17 0 0 -0 
795 2 89 -4.95 -19.95 -13.4 0 0 -0 
796 2 89 -0.85 -18.05 -13.4 0 0 -0 
797 2 89 -2.9 -19 -9.8 0 0 -0 
798 2 89 -4.95 -19.95 -8 0 0 -0 
799 2 89 -2.9 -19 -5.5 0 0 -0 
800 4 89 -0.85 -19 -2.5 0 0 -0 
801 3 89 -2.9 -19 -24.5 0 0 -0.4 
802 2 90 -2.9 -14 -21.5 0 0 -0 
803 2 90 -2.9 -14 -17 0 0 -0 
804 2 90 -4.95 -14.95 -13.4 0 0 -0 
805 2 90 -0.85 -13.05 -13.4 0 0 -0 
806 2 90 -2.9 -14 -9.8 0 0 -0 
807 2 90 -4.95 -14.95 -8 0 0 -0 
808 2 90 -2.9 -14 -5.5 0 0 -0 
809 4 90 -0.85 -14 -2.5 0 0 -0 
810 3 90 -2.9 -14 -24.5 0 0 -0.4 
811 2 91 -2.9 -9 -21.5 0 0 -0 
812 2 91 -2.9 -9 -17 0 0 -0 
813 2 91 -4.95 -9.95 -13.4 0 0 -0 
814 2 91 -0.85 -8.05 -13.4 0 0 -0 
815 2 91 -2.9 -9 -9.8 0 0 -0 
816 2 91 -4.95 -9.95 -8 0 0 -0 
817 2 91 -2.9 -9 -5.5 0 0 -0 
818 4 91 -0.85 -9 -2.5 0 0 -0 
819 3 91 -2.9 -9 -24.5 0 0 -0.4 
820 2 92 -2.9 -4 -21.5 0 0 -0 
821 2 92 -2.9 -4 -17 0 0 -0 
822 2 92 -4.95 -4.95 -13.4 0 0 -0 
823 2 92 -0.85 -3.05 -13.4 0 0 -0 
824 2 92 -2.9 -4 -9.8 0 0 -0 
825 2 92 -4.95 -4.95 -8 0 0 -0 
826 2 92 -2.9 -4 -5.5 0 0 -0 
827 4 92 -0.85 -4 -2.5 0 0 -0 
828 3 92 -2.9 -4 -24.5 0 0 -0.4 
829 2 93 -2.9 1 -21.5 0 0 -0 
830 2 93 -2.9 1 -17 0 0 -0 
831 2 93 -4.95 0.05 -13.4 0 0 -0 
832 2 93 -0.85 1.95 -13.4 0 0 -0 
833 2 93 -2.9 1 -9.8 0 0 -0 
834 2 93 -4.95 0.05 -8 0 0 -0 
835 2 93 -2.9 1 -5.5 0 0 -0 
836 4 93 -0.85 1 -2.5 0 0 -0 
837 3 93 -2.9 1 -24.5 0 0 -0.4 
838 2 94 -2.9 6 -21.5 0 0 -0 
839 2 94 -2.9 6 -17 0 0 -0 
840 2 94 -4.95 5.05 -13.4 0 0 -0 
841 2 94 -0.85 6.95 -13.4 0 0 -0 
842 2 94 -2.9 6 -9.8 0 0 -0 
843 2 94 -4.95 5.05 -8 0 0 -0 
844 2 94 -2.9 6 -5.5 0 0 -0 
845 4 94 -0.85 6 -2.5 0 0 -0 
846 3 94 -2.9 6 -24.5 0 0 -0.4 
847 2 95 -2.9 11 -21.5 0 0 -0 
848 2 95 -2.9 11 -17 0 0 -0 
849 2 95 -4.95 10.05 -13.4 0 0 -0 
850 2 95 -0.85 11.95 -13.4 0 0 -0 
851 2 95 -2.9 11 -9.8 0 0 -0 
852 2 95 -4.95 10.05 -8 0 0 -0 
853 2 95 -2.9 11 -5.5 0 0 -0 
854 4 95 -0.85 11 -2.5 0 0 -0 
855 3 95 -2.9 11 -24.5 0 0 -0.4 
856 2 96 -2.9 16 -21.5 0 0 -0 
857 2 96 -2.9 16 -17 0 0 -0 
858 2 96 -4.95 15.05 -13.4 0 0 -0 
859 2 96 -0.85 16.95 -13.4 0 0 -0 
860 2 96 -2.9 16 -9.8 0 0 -0 
861 2 96 -4.95 15.05 -8 0 0 -0 
862 2 96 -2.9 16 -5.5 0 0 -0 
863 4 96 -0.85 16 -2.5 0 0 -0 
864 3 96 -2.9 16 -24.5 0 0 -0.4 
865 2 97 2.1 -19 -21.5 0 0 -0 
866 2 97 2.1 -19 -17 0 0 -0 
867 2 97 0.05 -19.95 -13.4 0 0 -0 
868 2 97 4.15 -18.05 -13.4 0 0 -0 
869 2 97 2.1 -19 -9.8 0 0 -0 
870 2 97 0.05 -19.95 -8 0 0 -0 
871 2 97 2.1 -19 -5.5 0 0 -0 
872 4 97 4.15 -19 -2.5 0 0 -0 
873 3 97 2.1 -19 -24.5 0 0 -0.4 
874 2 98 2.1 -14 -21.5 0 0 -0 
875 2 98 2.1 -14 -17 0 0 -0 
876 2 98 0.05 -14.95 -13.4 0 0 -0 
877 2 98 4.15 -13.05 -13.4 0 0 -0 
878 2 98 2.1 -14 -9.8 0 0 -0 
879 2 98 0.05 -14.95 -8 0 0 -0 
880 2 98 2.1 -14 -5.5 0 0 -0 
881 4 98 4.15 -14 -2.5 0 0 -0 
882 3 98 2.1 -14 -24.5 0 0 -0.4 
883 2 99 2.1 -9 -21.5 0 0 -0 
884 2 99 2.1 -9 -17 0 0 -0 
885 2 99 0.05 -9.95 -13.4 0 0 -0 
886 2 99 4.15 -8.05 -13.4 0 0 -0 
887 2 99 2.1 -9 -9.8 0 0 -0 
888 2 99 0.05 -9.95 -8 0 0 -0 
889 2 99 2.1 -9 -5.5 0 0 -0 
890 4 99 4.15 -9 -2.5 0 0 -0 
891 3 99 2.1 -9 -24.5 0 0 -0.4 
892 2 100 2.1 -4 -21.5 0 0 -0 
893 2 100 2.1 -4 -17 0 0 -0 
894 2 100 0.05 -4.95 -13.4 0 0 -0 
895 2 100 4.15 -3.05 -13.4 0 0 -0 
896 2 100 2.1 -4 -9.8 0 0 -0 
897 2 100 0.05 -4.95 -8 0 0 -0 
898 2 100 2.1 -4 -5.5 0 0 -0 
899 4 100 4.15 -4 -2.5 0 0 -0 
900 3 100 2.1 -4 -24.5 0 0 -0.4 
901 2 101 2.1 1 -21.5 0 0 -0 
902 2 101 2.1 1 -17 0 0 -0 
903 2 101 0.05 0.05 -13.4 0 0 -0 
904 2 101 4.15 1.95 -13.4 0 0 -0 
905 2 101 2.1 1 -9.8 0 0 -0 
906 2 101 0.05 0.05 -8 0 0 -0 
907 2 101 2.1 1 -5.5 0 0 -0 
908 4 101 4.15 1 -2.5 0 0 -0 
909 3 101 2.1 1 -24.5 0 0 -0.4 
910 2 102 2.1 6 -21.5 0 0 -0 
911 2 102 2.1 6 -17 0 0 -0 
912 2 102 0.05 5.05 -13.4 0 0 -0 
913 2 102 4.15 6.95 -13.4 0 0 -0 
914 2 102 2.1 6 -9.8 0 0 -0 
915 2 102 0.05 5.05 -8 0 0 -0 
916 2 102 2.1 6 -5.5 0 0 -0 
917 4 102 4.15 6 -2.5 0 0 -0 
918 3 102 2.1 6 -24.5 0 0 -0.4 
919 2 103 2.1 11 -21.5 0 0 -0 
920 2 103 2.1 11 -17 0 0 -0 
921 2 103 0.05 10.05 -13.4 0 0 -0 
922 2 103 4.15 11.95 -13.4 0 0 -0 
923 2 103 2.1 11 -9.8 0 0 -0 
924 2 103 0.05 10.05 -8 0 0 -0 
925 2 103 2.1 11 -5.5 0 0 -0 
926 4 103 4.15 11 -2.5 0 0 -0 
927 3 103 2.1 11 -24.5 0 0 -0.4 
928 2 104 2.1 16 -21.5 0 0 -0 
929 2 104 2.1 16 -17 0 0 -0 
930 2 104 0.05 15.05 -13.4 0 0 -0 
931 2 104 4.15 16.95 -13.4 0 0 -0 
932 2 104 2.1 16 -9.8 0 0 -0 
933 2 104 0.05 15.05 -8 0 0 -0 
934 2 104 2.1 16 -5.5 0 0 -0 
935 4 104 4.15 16 -2.5 0 0 -0 
936 3 104 2.1 16 -24.5 0 0 -0.4 
937 2 105 7.1 -19 -21.5 0 0 -0 
938 2 105 7.1 -19 -17 0 0 -0 
939 2 105 5.05 -19.95 -13.4 0 0 -0 
940 2 105 9.15 -18.05 -13.4 0 0 -0 
941 2 105 7.1 -19 -9.8 0 0 -0 
942 2 105 5.05 -19.95 -8 0 0 -0 
943 2 105 7.1 -19 -5.5 0 0 -0 
944 4 105 9.15 -19 -2.5 0 0 -0 
945 3 105 7.1 -19 -24.5 0 0 -0.4 
946 2 106 7.1 -14 -21.5 0 0 -0 
947 2 106 7.1 -14 -17 0 0 -0 
948 2 106 5.05 -14.95 -13.4 0 0 -0 
949 2 106 9.15 -13.05 -13.4 0 0 -0 
950 2 106 7.1 -14 -9.8 0 0 -0 
951 2 106 5.05 -14.95 -8 0 0 -0 
952 2 106 7.1 -14 -5.5 0 0 -0 
953 4 106 9.15 -14 -2.5 0 0 -0 
954 3 106 7.1 -14 -24.5 0 0 -0.4 
955 2 107 7.1 -9 -21.5 0 0 -0 
956 2 107 7.1 -9 -17 0 0 -0 
957 2 107 5.05 -9.95 -13.4 0 0 -0 
958 2 107 9.15 -8.05 -13.4 0 0 -0 
959 2 107 7.1 -9 -9.8 0 0 -0 
960 2 107 5.05 -9.95 -8 0 0 -0 
961 2 107 7.1 -9 -5.5 0 0 -0 
962 4 107 9.15 -9 -2.5 0 0 -0 
963 3 107 7.1 -9 -24.5 0 0 -0.4 
964 2 108 7.1 -4 -21.5 0 0 -0 
965 2 108 7.1 -4 -17 0 0 -0 
966 2 108 5.05 -4.95 -13.4 0 0 -0 
967 2 108 9.15 -3.05 -13.4 0 0 -0 
968 2 108 7.1 -4 -9.8 0 0 -0 
969 2 108 5.05 -4.95 -8 0 0 -0 
970 2 108 7.1 -4 -5.5 0 0 -0 
971 4 108 9.15 -4 -2.5 0 0 -0 
972 3 108 7.1 -4 -24.5 0 0 -0.4 
973 2 109 7.1 1 -21.5 0 0 -0 
974 2 109 7.1 1 -17 0 0 -0 
975 2 109 5.05 0.05 -13.4 0 0 -0 
976 2 109 9.15 1.95 -13.4 0 0 -0 
977 2 109 7.1 1 -9.8 0 0 -0 